<VTKFile type="UnstructuredGrid" version="0.1" byte_order="LittleEndian">
<UnstructuredGrid>
<Piece NumberOfPoints="168" NumberOfCells="6">
<Points>
<DataArray type="Float64" NumberOfComponents="3" format="ascii">
-0.01 0.009 0
-0.0116667 0.009 0
-0.0133333 0.009 0
-0.015 0.009 0
-0.0166667 0.009 0
-0.0183333 0.009 0
-0.02 0.009 0
-0.0108333 0.008625 0
-0.0125 0.008625 0
-0.0141667 0.008625 0
-0.0158333 0.008625 0
-0.0175 0.008625 0
-0.0191667 0.008625 0
-0.0116667 0.00825 0
-0.0133333 0.00825 0
-0.015 0.00825 0
-0.0166667 0.00825 0
-0.0183333 0.00825 0
-0.0125 0.007875 0
-0.0141667 0.007875 0
-0.0158333 0.007875 0
-0.0175 0.007875 0
-0.0133333 0.0075 0
-0.015 0.0075 0
-0.0166667 0.0075 0
-0.0141667 0.007125 0
-0.0158333 0.007125 0
-0.015 0.00675 0
-0.01 0.0045 0
-0.00833333 0.0045 0
-0.00666667 0.0045 0
-0.005 0.0045 0
-0.00333333 0.0045 0
-0.00166667 0.0045 0
0 0.0045 0
-0.00916667 0.004875 0
-0.0075 0.004875 0
-0.00583333 0.004875 0
-0.00416667 0.004875 0
-0.0025 0.004875 0
-0.000833333 0.004875 0
-0.00833333 0.00525 0
-0.00666667 0.00525 0
-0.005 0.00525 0
-0.00333333 0.00525 0
-0.00166667 0.00525 0
-0.0075 0.005625 0
-0.00583333 0.005625 0
-0.00416667 0.005625 0
-0.0025 0.005625 0
-0.00666667 0.006 0
-0.005 0.006 0
-0.00333333 0.006 0
-0.00583333 0.006375 0
-0.00416667 0.006375 0
-0.005 0.00675 0
0 0.009 0
-0.00166667 0.009 0
-0.00333333 0.009 0
-0.005 0.009 0
-0.00666667 0.009 0
-0.00833333 0.009 0
-0.01 0.009 0
-0.000833333 0.008625 0
-0.0025 0.008625 0
-0.00416667 0.008625 0
-0.00583333 0.008625 0
-0.0075 0.008625 0
-0.00916667 0.008625 0
-0.00166667 0.00825 0
-0.00333333 0.00825 0
-0.005 0.00825 0
-0.00666667 0.00825 0
-0.00833333 0.00825 0
-0.0025 0.007875 0
-0.00416667 0.007875 0
-0.00583333 0.007875 0
-0.0075 0.007875 0
-0.00333333 0.0075 0
-0.005 0.0075 0
-0.00666667 0.0075 0
-0.00416667 0.007125 0
-0.00583333 0.007125 0
-0.005 0.00675 0
-0.005 0.00675 0
-0.00583333 0.007125 0
-0.00666667 0.0075 0
-0.0075 0.007875 0
-0.00833333 0.00825 0
-0.00916667 0.008625 0
-0.01 0.009 0
-0.00583333 0.006375 0
-0.00666667 0.00675 0
-0.0075 0.007125 0
-0.00833333 0.0075 0
-0.00916667 0.007875 0
-0.01 0.00825 0
-0.00666667 0.006 0
-0.0075 0.006375 0
-0.00833333 0.00675 0
-0.00916667 0.007125 0
-0.01 0.0075 0
-0.0075 0.005625 0
-0.00833333 0.006 0
-0.00916667 0.006375 0
-0.01 0.00675 0
-0.00833333 0.00525 0
-0.00916667 0.005625 0
-0.01 0.006 0
-0.00916667 0.004875 0
-0.01 0.00525 0
-0.01 0.0045 0
-0.01 0.009 0
-0.0108333 0.008625 0
-0.0116667 0.00825 0
-0.0125 0.007875 0
-0.0133333 0.0075 0
-0.0141667 0.007125 0
-0.015 0.00675 0
-0.01 0.00825 0
-0.0108333 0.007875 0
-0.0116667 0.0075 0
-0.0125 0.007125 0
-0.0133333 0.00675 0
-0.0141667 0.006375 0
-0.01 0.0075 0
-0.0108333 0.007125 0
-0.0116667 0.00675 0
-0.0125 0.006375 0
-0.0133333 0.006 0
-0.01 0.00675 0
-0.0108333 0.006375 0
-0.0116667 0.006 0
-0.0125 0.005625 0
-0.01 0.006 0
-0.0108333 0.005625 0
-0.0116667 0.00525 0
-0.01 0.00525 0
-0.0108333 0.004875 0
-0.01 0.0045 0
0 0.009 0
-0.000833333 0.008625 0
-0.00166667 0.00825 0
-0.0025 0.007875 0
-0.00333333 0.0075 0
-0.00416667 0.007125 0
-0.005 0.00675 0
0 0.00825 0
-0.000833333 0.007875 0
-0.00166667 0.0075 0
-0.0025 0.007125 0
-0.00333333 0.00675 0
-0.00416667 0.006375 0
0 0.0075 0
-0.000833333 0.007125 0
-0.00166667 0.00675 0
-0.0025 0.006375 0
-0.00333333 0.006 0
0 0.00675 0
-0.000833333 0.006375 0
-0.00166667 0.006 0
-0.0025 0.005625 0
0 0.006 0
-0.000833333 0.005625 0
-0.00166667 0.00525 0
0 0.00525 0
-0.000833333 0.004875 0
0 0.0045 0
</DataArray>
</Points>
<Cells>
<DataArray type="Int32" Name="connectivity" format="ascii">
0 6 27 1 2 3 4 5 12 17 21 24 26 25 22 18 13 7 8 11 23 9 10 16 20 19 14 15 
28 34 55 29 30 31 32 33 40 45 49 52 54 53 50 46 41 35 36 39 51 37 38 44 48 47 42 43 
56 62 83 57 58 59 60 61 68 73 77 80 82 81 78 74 69 63 64 67 79 65 66 72 76 75 70 71 
84 90 111 85 86 87 88 89 96 101 105 108 110 109 106 102 97 91 92 95 107 93 94 100 104 103 98 99 
112 118 139 113 114 115 116 117 124 129 133 136 138 137 134 130 125 119 120 123 135 121 122 128 132 131 126 127 
140 146 167 141 142 143 144 145 152 157 161 164 166 165 162 158 153 147 148 151 163 149 150 156 160 159 154 155 
</DataArray>
<DataArray type="Int32" Name="offsets" format="ascii">
28
56
84
112
140
168
</DataArray>
<DataArray type="UInt8" Name="types" format="ascii">
69
69
69
69
69
69
</DataArray>
</Cells>
<CellData Scalars="attribute">
<DataArray type="Int32" Name="attribute" format="ascii">
2
2
2
2
2
2
</DataArray>
</CellData>
<PointData >
<DataArray type="Float64" Name="Et_im" NumberOfComponents="2" format="ascii" >
-5.74911e-16 -7.28188e-12 
2.55777e-15 6.94373e-12 
5.96257e-16 8.70006e-12 
1.33252e-15 6.04314e-12 
6.62994e-15 1.85196e-12 
1.24157e-14 -1.00208e-12 
8.67343e-15 5.47185e-12 
2.10154e-12 1.55148e-12 
5.02728e-14 3.64586e-12 
1.35413e-14 2.59116e-12 
1.58707e-13 2.96122e-12 
-8.73925e-14 2.7524e-12 
-3.68629e-14 -1.70127e-12 
2.33555e-12 1.43964e-12 
-2.32343e-13 6.21762e-12 
1.07424e-13 4.25375e-12 
-2.23101e-15 2.16496e-12 
-1.37095e-12 -1.59363e-12 
2.81544e-12 8.41886e-13 
-6.1108e-13 6.58664e-12 
-2.42767e-13 2.7995e-12 
-6.2261e-13 2.88567e-12 
2.40001e-12 1.96159e-13 
-1.23672e-12 2.34102e-12 
1.14212e-12 4.90106e-12 
-1.09678e-13 3.71871e-12 
1.28067e-12 5.91657e-12 
-1.43079e-12 2.82215e-11 
-3.63503e-13 4.23128e-12 
-1.07317e-12 1.22742e-11 
-1.91157e-12 1.01975e-11 
-1.24177e-12 7.03634e-12 
8.35076e-14 3.01853e-12 
8.47055e-13 -2.83271e-12 
1.59234e-12 -3.7596e-12 
1.56472e-12 2.24273e-12 
-1.92452e-12 4.39043e-12 
-1.5202e-12 3.10103e-12 
2.22069e-14 4.3386e-12 
4.7094e-13 4.93033e-12 
1.92981e-13 2.20404e-13 
1.61372e-12 -1.32659e-13 
-2.08973e-12 6.35447e-12 
-5.43027e-13 4.69585e-12 
5.23428e-13 2.4997e-12 
-1.0783e-12 -2.52147e-12 
1.96275e-12 -4.10592e-12 
-1.63821e-12 4.7654e-12 
-1.28543e-13 1.63974e-12 
-7.25728e-13 -1.06326e-12 
2.34581e-12 -6.04014e-12 
-1.03724e-12 2.07992e-12 
6.41689e-13 4.74775e-12 
2.02424e-12 -2.12516e-12 
1.82317e-12 8.76133e-12 
3.03962e-12 4.10256e-12 
-1.26013e-14 1.03939e-11 
-3.83335e-15 6.96268e-13 
-1.09584e-14 1.82496e-12 
-1.00577e-14 4.58955e-12 
-4.11559e-15 5.35992e-12 
-5.90911e-15 4.77485e-12 
-2.08979e-14 5.80093e-12 
-9.9081e-13 -5.52357e-13 
2.05331e-13 1.06907e-12 
2.81466e-13 2.93358e-12 
-2.01677e-14 3.81248e-12 
-2.35346e-13 3.74374e-12 
-1.36382e-13 2.82571e-12 
3.79486e-13 5.29848e-13 
4.70109e-13 2.80544e-12 
1.25475e-13 3.79177e-12 
-3.06741e-13 4.19489e-12 
-1.02051e-12 1.93551e-12 
7.44687e-13 2.08609e-12 
2.89582e-13 2.80183e-12 
-1.0511e-13 3.83247e-12 
-1.63521e-12 1.86102e-12 
3.73967e-13 1.75695e-12 
3.41163e-13 3.59747e-12 
-1.29926e-12 4.37788e-12 
9.31524e-13 7.0403e-13 
3.61968e-13 7.20373e-12 
3.59191e-12 -2.82656e-12 
4.87481e-12 2.43451e-14 
-5.27301e-12 -5.31845e-12 
-6.68179e-12 -7.58332e-12 
-5.48127e-12 -6.68578e-12 
-3.50831e-12 -3.59294e-12 
-9.49909e-13 1.01787e-12 
5.76518e-13 7.12852e-12 
1.91433e-12 -1.88092e-12 
8.32472e-13 7.66608e-12 
8.09899e-13 9.09485e-12 
8.02761e-13 7.77943e-12 
6.08606e-13 6.0995e-12 
-1.97202e-12 4.02344e-12 
2.06025e-12 -5.40556e-12 
-2.58106e-12 1.16937e-12 
-2.8987e-12 1.89247e-12 
-1.38434e-12 2.67132e-12 
-3.06316e-12 4.16946e-12 
-2.85401e-13 8.89978e-13 
-3.05812e-12 2.08908e-12 
-2.81994e-13 2.47597e-12 
-2.32576e-12 3.86543e-12 
-1.3199e-12 6.3865e-12 
1.79757e-12 7.62474e-12 
-3.16783e-12 6.02522e-12 
2.77501e-12 -4.46784e-13 
-5.39269e-12 8.73877e-12 
4.31565e-12 -6.16684e-12 
-6.48526e-12 7.12852e-12 
7.02756e-13 4.65989e-12 
1.48875e-12 3.32142e-12 
1.69138e-12 3.3398e-12 
1.46041e-12 2.28414e-12 
1.0678e-12 1.10208e-12 
6.22777e-12 1.12025e-11 
-2.4122e-12 4.02344e-12 
2.16762e-13 5.65889e-12 
9.79222e-13 6.11133e-12 
4.28986e-13 5.86708e-12 
-8.95248e-13 4.453e-12 
2.87319e-12 7.11931e-12 
1.2676e-13 4.16946e-12 
9.63111e-13 4.6118e-12 
1.88022e-12 4.35797e-12 
6.63256e-13 3.50277e-12 
3.48617e-13 3.22341e-12 
1.34153e-12 3.86543e-12 
1.15016e-12 4.73154e-12 
1.52821e-12 5.09064e-12 
-3.57832e-13 4.24893e-12 
2.29423e-12 6.02522e-12 
8.05101e-13 8.37742e-12 
-3.80599e-13 7.28522e-12 
3.81463e-12 8.73877e-12 
4.52039e-14 5.70404e-12 
4.94148e-12 -6.16684e-12 
4.68467e-12 -4.44899e-14 
1.7005e-12 -6.53305e-12 
3.80268e-12 -7.07724e-12 
5.10944e-12 -7.61338e-12 
4.55373e-12 -7.5314e-12 
3.10909e-12 -4.135e-12 
1.75671e-12 1.25166e-12 
3.57e-12 -1.28283e-15 
8.38698e-14 3.73399e-12 
-8.23905e-13 6.14058e-12 
-1.75818e-12 6.3251e-12 
-2.59615e-12 4.74484e-12 
-2.84867e-12 -1.62053e-12 
3.71671e-12 -6.31253e-15 
2.83756e-12 -1.80524e-12 
2.84951e-12 -2.66593e-12 
1.44495e-12 -2.05586e-12 
-2.94235e-12 -3.21679e-12 
6.75613e-13 -9.67507e-15 
9.12932e-13 -1.69723e-12 
2.52452e-12 -6.48581e-13 
4.45155e-13 1.5387e-12 
1.75451e-12 -4.57504e-15 
-1.08911e-12 3.92407e-12 
1.1435e-12 2.41586e-12 
9.73546e-12 -1.05563e-14 
-2.61912e-12 -6.0287e-12 
3.25863e-12 -5.67327e-14 
</DataArray>
<DataArray type="Float64" Name="Et_re" NumberOfComponents="2" format="ascii" >
3.18717e-14 -168.008 
4.07587e-17 -162.283 
2.13315e-14 -145.499 
7.06958e-15 -118.799 
3.31031e-15 -84.004 
1.74759e-14 -43.4837 
-1.14592e-14 -0.000390382 
0.490325 -166.951 
1.43601 -155.573 
2.2846 -133.593 
2.97709 -102.51 
3.4671 -64.4403 
3.72015 -21.9802 
1.94704 -163.766 
3.76131 -146.828 
5.31919 -119.885 
6.51462 -84.7714 
7.26602 -43.8812 
4.33438 -158.416 
6.89532 -136.035 
8.9859 -104.384 
10.4645 -65.6182 
7.59119 -150.842 
10.7356 -123.162 
13.1484 -87.0884 
11.632 -140.963 
15.1591 -108.165 
16.3482 -128.69 
-0.00135699 -226.286 
-12.964 -218.576 
-25.045 -195.97 
-35.4185 -160.008 
-43.3789 -113.144 
-48.3828 -58.567 
-50.0904 -0.00199283 
-5.89253 -214.704 
-17.2782 -200.071 
-27.4851 -171.805 
-35.8195 -131.831 
-41.7127 -82.8722 
-44.7636 -28.2671 
-10.4599 -200.733 
-20.2078 -179.972 
-28.5779 -146.946 
-35.001 -103.907 
-39.0382 -53.7861 
-13.7254 -184.794 
-21.8336 -158.686 
-28.4544 -121.764 
-33.1356 -76.544 
-15.7401 -167.263 
-22.2596 -136.57 
-27.2624 -96.5694 
-16.5813 -148.468 
-21.6092 -113.924 
-16.3482 -128.69 
-2.1979e-14 -0.000390383 
-8.06477e-15 -43.4837 
-2.8444e-14 -84.004 
-1.91008e-14 -118.799 
-1.21642e-14 -145.499 
-1.32875e-14 -162.283 
-7.50661e-15 -168.008 
-3.72015 -21.9802 
-3.4671 -64.4403 
-2.97709 -102.51 
-2.2846 -133.593 
-1.43601 -155.573 
-0.490325 -166.951 
-7.26602 -43.8812 
-6.51462 -84.7714 
-5.31919 -119.885 
-3.76131 -146.828 
-1.94704 -163.766 
-10.4645 -65.6182 
-8.9859 -104.384 
-6.89532 -136.035 
-4.33438 -158.416 
-13.1484 -87.0884 
-10.7356 -123.162 
-7.59119 -150.842 
-15.1591 -108.165 
-11.632 -140.963 
-16.3482 -128.69 
-16.3482 -128.69 
-11.6319 -140.963 
-7.59119 -150.842 
-4.3345 -158.417 
-1.947 -163.766 
-0.489864 -166.95 
0.000244001 -168.008 
-16.5814 -148.468 
-11.56 -157.612 
-7.31216 -164.155 
-3.92946 -168.242 
-1.47848 -170.002 
0.000103705 -169.543 
-15.7401 -167.263 
-10.4235 -172.895 
-5.98387 -175.794 
-2.49406 -176.16 
0.000165944 -174.177 
-13.7253 -184.795 
-8.14765 -186.558 
-3.55522 -185.539 
-1.50689e-05 -181.995 
-10.4601 -200.733 
-4.68135 -198.309 
-0.000140373 -193.139 
-5.89311 -214.703 
-9.05055e-05 -207.813 
-0.000835598 -226.287 
-0.000244001 -168.008 
0.489864 -166.95 
1.947 -163.766 
4.3345 -158.417 
7.59119 -150.842 
11.6319 -140.963 
16.3482 -128.69 
-0.000103705 -169.543 
1.47848 -170.002 
3.92946 -168.242 
7.31216 -164.155 
11.56 -157.612 
16.5814 -148.468 
-0.000165944 -174.177 
2.49406 -176.16 
5.98387 -175.794 
10.4235 -172.895 
15.7401 -167.263 
1.50689e-05 -181.995 
3.55522 -185.539 
8.14765 -186.558 
13.7253 -184.795 
0.000140373 -193.139 
4.68135 -198.309 
10.4601 -200.733 
9.05055e-05 -207.813 
5.89311 -214.703 
0.000835599 -226.287 
-0.000175672 1.77175e-13 
-3.7205 -21.9794 
-7.26612 -43.881 
-10.4645 -65.6183 
-13.1485 -87.0884 
-15.1591 -108.165 
-16.3482 -128.69 
-7.5225 -1.12697e-14 
-11.2297 -22.3811 
-14.6652 -45.0804 
-17.6531 -67.9954 
-20.0225 -90.9974 
-21.6092 -113.924 
-15.1825 -1.03514e-13 
-18.9441 -23.192 
-22.3321 -47.1037 
-25.1645 -71.6153 
-27.2625 -96.5695 
-23.12 -2.21613e-14 
-27.0048 -24.4267 
-30.4073 -49.9881 
-33.1357 -76.5443 
-31.48 -7.56612e-15 
-35.5591 -26.1079 
-39.0382 -53.7861 
-40.4153 -5.08134e-14 
-44.7632 -28.2662 
-50.0895 -1.02196e-13 
</DataArray>
<DataArray type="Float64" Name="Ez_im" NumberOfComponents="1" format="ascii" >
-1.87022e-14
1.63776e-13
9.82327e-14
-2.56204e-15
-4.76182e-14
-3.48681e-14
-4.41658e-16
-5.84769
-5.4492
-4.67931
-3.59056
-2.25714
-0.769863
-11.4204
-10.2392
-8.36027
-5.91163
-3.06007
-16.4472
-14.1235
-10.8373
-6.81263
-20.6656
-16.8734
-11.9313
-23.8258
-18.2822
-25.6949
-78.7268
-76.0442
-68.1793
-55.6682
-39.3634
-20.3759
-4.35785e-14
-70.3551
-65.5606
-56.2981
-43.1991
-27.1561
-9.26244
-61.3573
-55.0114
-44.9166
-31.7608
-16.4406
-52.0801
-44.7221
-34.3165
-21.5723
-42.8489
-34.986
-24.7388
-33.9636
-26.0612
-25.6949
-4.85113e-14
2.09228e-13
1.05525e-13
-1.54947e-14
5.23643e-14
-4.02308e-15
-1.87022e-14
-0.769863
-2.25714
-3.59056
-4.67931
-5.4492
-5.84769
-3.06007
-5.91163
-8.36027
-10.2392
-11.4204
-6.81263
-10.8373
-14.1235
-16.4472
-11.9313
-16.8734
-20.6656
-18.2822
-23.8258
-25.6949
-25.6949
-23.8258
-20.6656
-16.4472
-11.4204
-5.84769
-1.87022e-14
-33.9636
-31.4697
-27.7457
-23.0495
-17.65
-11.8232
-42.8489
-39.5514
-35.0998
-29.7748
-23.8626
-52.0801
-47.7918
-42.4439
-36.338
-61.3573
-55.8888
-49.4777
-70.3551
-63.5217
-78.7268
-1.87022e-14
-5.84769
-11.4204
-16.4472
-20.6656
-23.8258
-25.6949
-11.8232
-17.65
-23.0495
-27.7457
-31.4697
-33.9636
-23.8626
-29.7748
-35.0998
-39.5514
-42.8489
-36.338
-42.4439
-47.7918
-52.0801
-49.4777
-55.8888
-61.3573
-63.5217
-70.3551
-78.7268
-4.85113e-14
-0.769863
-3.06007
-6.81263
-11.9313
-18.2822
-25.6949
-2.33115e-13
-2.32366
-6.17608
-11.4927
-18.169
-26.0612
2.54839e-14
-3.91993
-9.40497
-16.3827
-24.7388
-2.95215e-14
-5.58785
-12.8058
-21.5723
-3.99328e-15
-7.3579
-16.4406
1.69926e-14
-9.26244
-4.35785e-14
</DataArray>
<DataArray type="Float64" Name="Ez_re" NumberOfComponents="1" format="ascii" >
4.61375e-14
1.95096e-14
1.52163e-14
1.25965e-14
1.19185e-14
7.86526e-15
1.2581e-14
-7.69405e-14
-2.66516e-13
-2.34733e-13
-1.79053e-13
-1.39143e-13
-3.84648e-14
-4.08232e-13
-5.5795e-13
-3.95618e-13
-3.1598e-13
-6.09663e-14
-8.17231e-13
-9.38833e-13
-4.9257e-13
-2.95698e-13
-1.31939e-12
-9.31523e-13
-4.92398e-13
-1.47613e-12
-6.26642e-13
-2.01627e-12
-4.74416e-12
-4.2733e-12
-3.29874e-12
-2.51831e-12
-1.72642e-12
-1.016e-12
9.51729e-15
-4.30986e-12
-3.43454e-12
-2.76532e-12
-1.88779e-12
-1.04804e-12
-4.94864e-13
-3.40649e-12
-2.78213e-12
-2.16412e-12
-1.15744e-12
-7.41176e-13
-2.79776e-12
-2.10668e-12
-1.5813e-12
-1.01057e-12
-2.46278e-12
-1.77617e-12
-1.17858e-12
-2.105e-12
-1.24672e-12
-1.35826e-12
3.20836e-14
1.65397e-14
2.09713e-14
3.26573e-14
2.639e-14
2.38071e-14
4.61375e-14
-1.39934e-14
7.26275e-14
-1.34684e-13
-2.33496e-13
-2.34988e-13
-2.70352e-13
1.83173e-13
-1.54345e-13
-4.44359e-13
-5.0521e-13
-3.82678e-13
8.12357e-16
-4.99121e-13
-7.59845e-13
-5.81647e-13
-2.90165e-13
-8.87079e-13
-9.5515e-13
-6.95144e-13
-1.44018e-12
-1.35826e-12
-1.35826e-12
-1.44018e-12
-9.5515e-13
-5.81647e-13
-3.82678e-13
-2.70352e-13
4.61375e-14
-2.105e-12
-2.1725e-12
-1.71758e-12
-1.35514e-12
-1.14146e-12
-8.31865e-13
-2.46278e-12
-2.76525e-12
-2.32659e-12
-1.98604e-12
-1.49666e-12
-2.79776e-12
-2.48968e-12
-2.30413e-12
-2.16087e-12
-3.40649e-12
-3.11581e-12
-2.95212e-12
-4.30986e-12
-4.25745e-12
-4.74416e-12
4.61375e-14
-7.69405e-14
-4.08232e-13
-8.17231e-13
-1.31939e-12
-1.47613e-12
-2.01627e-12
-8.31865e-13
-9.38622e-13
-1.37103e-12
-1.83055e-12
-2.00611e-12
-2.10377e-12
-1.49666e-12
-1.8298e-12
-2.2486e-12
-2.59188e-12
-2.48622e-12
-2.16087e-12
-2.48936e-12
-2.90623e-12
-3.10645e-12
-2.95212e-12
-3.42626e-12
-3.86319e-12
-4.25745e-12
-4.6353e-12
-4.74416e-12
3.20836e-14
-1.39934e-14
1.83173e-13
8.12357e-16
-2.90165e-13
-6.95144e-13
-1.35826e-12
1.7211e-14
-3.05537e-13
-6.05255e-13
-8.53267e-13
-1.08957e-12
-1.24672e-12
3.23629e-14
-5.22043e-13
-9.08215e-13
-1.18271e-12
-1.17858e-12
2.59147e-14
-4.64866e-14
-3.5259e-13
-1.01057e-12
1.77573e-14
-2.4676e-13
-7.41176e-13
2.20297e-14
-4.94864e-13
9.51729e-15
</DataArray>
<DataArray type="Float64" Name="Ht_im" NumberOfComponents="2" format="ascii" >
1.25049e-15 -4.31081e-16 
-1.15771e-14 5.14296e-16 
-1.0064e-14 8.46518e-17 
-8.26244e-15 -1.00689e-16 
-6.61272e-15 -1.65813e-16 
-2.81759e-15 1.83367e-17 
-2.71717e-15 -1.06892e-15 
-3.31432e-15 2.34419e-15 
-5.33909e-15 -2.19889e-16 
-4.20475e-15 5.20589e-16 
-3.8683e-15 7.19988e-16 
-1.99407e-15 -6.07863e-17 
-6.82263e-16 1.12587e-15 
-4.66617e-15 3.24543e-15 
-5.71779e-15 2.58276e-16 
-5.61882e-15 1.18314e-15 
-4.15867e-15 1.45738e-16 
-2.00132e-15 1.10167e-15 
-3.00664e-15 1.6902e-15 
-5.25733e-15 8.68921e-16 
-5.26943e-15 1.51651e-15 
-4.86445e-15 1.29215e-17 
-2.92518e-15 8.13532e-16 
-5.07028e-15 2.75665e-15 
-6.94147e-15 1.57903e-16 
-6.22149e-15 3.09271e-15 
-6.70375e-15 1.86757e-15 
-3.482e-15 3.20357e-15 
-2.03068e-14 1.23811e-14 
-1.27889e-14 -9.48664e-15 
-1.35398e-14 -1.01906e-14 
-1.06794e-14 -8.85687e-15 
-5.24924e-15 -4.5996e-15 
-1.65835e-15 -2.26049e-15 
1.87072e-15 -7.76572e-15 
9.39044e-16 -3.32993e-15 
-7.16143e-15 -9.89781e-15 
-9.79154e-15 -9.23984e-15 
-6.04402e-15 -6.14053e-15 
-1.10054e-15 -2.46117e-15 
2.1828e-15 -1.96894e-15 
1.75783e-15 -4.2497e-15 
-4.21059e-15 -8.1723e-15 
-6.64216e-15 -7.66258e-15 
-5.49121e-15 -4.23875e-15 
-1.62272e-15 -1.97581e-15 
-1.25007e-15 -5.98716e-15 
-3.67381e-15 -6.87809e-15 
-6.57424e-15 -4.57113e-15 
-1.99504e-15 -3.28907e-15 
-4.08377e-15 -5.99072e-15 
-6.18845e-15 -4.40184e-15 
-1.90975e-15 -5.56445e-15 
-4.11002e-15 -3.09421e-15 
-3.12395e-15 -5.92143e-15 
2.78671e-15 1.564e-15 
2.23622e-15 -2.26492e-15 
-3.42471e-15 8.82893e-16 
-4.26585e-15 3.24404e-16 
-5.66106e-15 -1.80304e-16 
-6.73859e-15 -8.07349e-16 
-4.40397e-15 -1.36573e-15 
2.63706e-15 8.45159e-16 
-3.61868e-16 2.01975e-15 
-4.92591e-15 -9.55457e-16 
-4.23505e-15 -1.06097e-16 
-4.64576e-15 -3.79571e-16 
-5.5809e-15 -4.49618e-16 
-3.47158e-15 -2.11484e-15 
-1.86717e-15 1.07824e-15 
-5.01907e-15 -9.88112e-16 
-4.63318e-15 -8.64971e-16 
-5.69591e-15 -8.77425e-16 
-4.35502e-15 -2.23149e-15 
-4.08015e-15 5.48823e-16 
-5.31626e-15 -2.37333e-15 
-5.4657e-15 -3.89191e-16 
-3.65565e-15 -2.2367e-15 
-3.68449e-15 -1.6661e-15 
-5.73021e-15 -1.83896e-15 
-3.77087e-15 -3.7916e-15 
-4.63614e-16 -3.40439e-15 
-3.20656e-15 -3.7751e-15 
1.24895e-15 -1.28485e-15 
2.65882e-15 1.84819e-15 
-1.64412e-15 -3.03004e-16 
-2.8224e-15 -1.68389e-15 
-3.3064e-15 -1.4606e-15 
-4.20507e-15 -1.89826e-15 
-3.65973e-15 -2.53295e-15 
2.51079e-15 5.64575e-16 
-3.36448e-15 -4.75097e-15 
1.52793e-15 -3.39717e-15 
6.85686e-16 -4.26721e-15 
-8.19744e-16 -4.30745e-15 
-2.141e-15 -3.62058e-15 
-4.35039e-15 1.2795e-16 
-4.42941e-15 -5.22265e-15 
-1.73149e-15 -4.25835e-15 
-2.55001e-15 -4.1571e-15 
-2.09886e-15 -3.38865e-15 
-3.88619e-15 1.33496e-16 
-1.18234e-15 -6.13767e-15 
-3.34498e-15 -5.23519e-15 
-3.44319e-15 -4.08261e-15 
-4.20519e-15 1.10456e-16 
1.20714e-15 -3.02594e-15 
-3.69999e-15 -4.75418e-15 
-5.28832e-15 4.4359e-16 
1.33444e-15 -4.20858e-15 
-4.1865e-15 3.18763e-15 
-2.05321e-14 1.28817e-14 
8.02443e-16 5.64575e-16 
-3.43747e-15 2.61786e-15 
-4.36777e-15 2.58232e-15 
-2.41505e-15 3.75558e-16 
-2.3426e-15 -4.81094e-16 
-5.59481e-15 1.70009e-15 
-3.42957e-15 3.08707e-15 
-4.8001e-15 1.2795e-16 
-3.29112e-15 2.37456e-15 
-3.08942e-15 3.20997e-15 
-3.15001e-15 3.29638e-15 
-4.27473e-15 2.23898e-15 
-7.00089e-15 4.88536e-15 
-3.18877e-15 1.33496e-16 
-3.70256e-15 2.70629e-15 
-4.12669e-15 3.31604e-15 
-3.34536e-15 3.4054e-15 
-7.34004e-15 6.51055e-15 
-2.43244e-15 1.10456e-16 
-5.73583e-15 3.87051e-15 
-5.10596e-15 3.63498e-15 
-8.2564e-15 6.61128e-15 
-3.99345e-15 4.4359e-16 
-6.99361e-15 4.22204e-15 
-1.0113e-14 2.10141e-15 
-5.01409e-15 3.18763e-15 
-1.02223e-14 5.76408e-15 
-2.61802e-14 1.28817e-14 
1.00112e-15 4.79753e-16 
-4.09122e-16 2.12475e-15 
-2.10623e-15 1.60949e-15 
-3.59944e-15 -5.19426e-16 
-3.34176e-15 -2.42772e-15 
6.01154e-16 -5.77054e-15 
1.37684e-15 -1.56904e-15 
-7.16973e-16 3.51746e-15 
3.95689e-16 1.55822e-15 
4.86072e-16 2.07343e-15 
4.40908e-16 9.39872e-16 
1.48083e-15 -3.62313e-15 
-2.96338e-15 -5.56463e-15 
-2.73195e-16 1.95207e-15 
-3.77948e-16 -3.28828e-16 
-1.2205e-15 4.35761e-16 
-3.75192e-16 -1.83564e-15 
-1.66426e-15 -5.01893e-15 
-1.57614e-16 8.90867e-16 
-4.05326e-16 -1.22976e-15 
-1.49302e-15 -5.74543e-16 
-1.59291e-15 -2.39544e-15 
3.52996e-17 -2.92613e-16 
-8.29621e-16 -1.57974e-15 
-2.17258e-15 -3.19772e-15 
-1.54249e-15 -3.4068e-15 
1.69988e-15 -3.0421e-15 
2.26467e-15 -6.89028e-15 
</DataArray>
<DataArray type="Float64" Name="Ht_re" NumberOfComponents="2" format="ascii" >
0.296622 -7.59335e-07 
0.286512 1.48402e-07 
0.25688 -1.30054e-07 
0.209739 -7.60693e-09 
0.14831 1.34249e-07 
0.076771 -1.60013e-07 
2.36277e-06 7.59501e-07 
0.294753 -1.81031e-08 
0.274665 -2.77198e-08 
0.23586 5.3886e-08 
0.180982 -3.82502e-08 
0.11377 -5.66047e-09 
0.0388062 1.48237e-07 
0.28913 1.28799e-07 
0.259227 6.36747e-09 
0.211658 1.32931e-08 
0.149665 -2.97089e-08 
0.0774726 -4.0565e-08 
0.279686 4.47702e-08 
0.240171 5.63643e-08 
0.18429 -5.05005e-08 
0.115849 2.54178e-08 
0.266312 -3.21825e-09 
0.217443 -1.62908e-09 
0.153755 5.01238e-08 
0.248872 5.90127e-09 
0.190966 -8.59776e-09 
0.227203 2.6219e-09 
0.399517 -3.18621e-06 
0.385897 4.37993e-07 
0.345988 -3.97808e-07 
0.282494 2.0121e-07 
0.199756 5.09265e-08 
0.103401 -1.73102e-07 
2.67752e-06 3.15308e-07 
0.379063 -5.08452e-07 
0.353228 -8.51728e-08 
0.303324 1.09551e-07 
0.232748 -4.34199e-08 
0.146312 -2.96697e-08 
0.0499044 -4.58422e-07 
0.354396 -9.08122e-09 
0.317742 1.8845e-08 
0.259435 3.866e-08 
0.183448 -8.11739e-08 
0.0949593 -2.69503e-07 
0.326256 -4.89389e-08 
0.280162 9.81929e-08 
0.214976 -8.1837e-08 
0.135139 -1.51962e-07 
0.295305 -1.00105e-07 
0.241115 4.86415e-08 
0.170494 -1.58132e-07 
0.262121 -3.70759e-08 
0.201133 -9.91023e-08 
0.227203 -3.36086e-08 
2.36277e-06 -7.59501e-07 
0.076771 1.60013e-07 
0.14831 -1.34249e-07 
0.209739 7.60692e-09 
0.25688 1.30054e-07 
0.286512 -1.48402e-07 
0.296622 7.59335e-07 
0.0388062 -1.48237e-07 
0.11377 5.66048e-09 
0.180982 3.82502e-08 
0.23586 -5.3886e-08 
0.274665 2.77198e-08 
0.294753 1.81031e-08 
0.0774726 4.05651e-08 
0.149665 2.97088e-08 
0.211658 -1.32931e-08 
0.259227 -6.36748e-09 
0.28913 -1.28799e-07 
0.115849 -2.54178e-08 
0.18429 5.05005e-08 
0.240171 -5.63643e-08 
0.279686 -4.47703e-08 
0.153755 -5.01238e-08 
0.217443 1.62906e-09 
0.266312 3.21826e-09 
0.190966 8.59777e-09 
0.248872 -5.90126e-09 
0.227203 -2.62191e-09 
0.227203 -2.85374e-08 
0.248872 -7.42272e-09 
0.266312 1.81805e-07 
0.279686 8.64516e-08 
0.28913 -3.32074e-07 
0.294753 -7.34539e-07 
0.296621 2.2669e-15 
0.262121 8.3659e-09 
0.278266 -1.40002e-08 
0.289818 -8.1272e-08 
0.297033 -5.98708e-09 
0.30014 4.87094e-08 
0.299329 -2.46926e-14 
0.295305 -1.50248e-07 
0.305247 7.16863e-08 
0.310365 3.1301e-08 
0.311013 -1.17409e-07 
0.307511 -2.42539e-14 
0.326256 5.25429e-08 
0.32937 -4.09938e-08 
0.327571 1.43317e-07 
0.321313 -1.05353e-14 
0.354395 5.98708e-07 
0.350115 -1.24469e-07 
0.340989 1.29509e-14 
0.379062 1.24101e-06 
0.366896 2.77464e-14 
0.399516 3.21594e-14 
0.296621 2.46415e-15 
0.294753 7.34539e-07 
0.28913 3.32074e-07 
0.279686 -8.64516e-08 
0.266312 -1.81805e-07 
0.248872 7.42267e-09 
0.227203 2.85376e-08 
0.299329 -2.21965e-14 
0.30014 -4.87094e-08 
0.297033 5.98707e-09 
0.289818 8.1272e-08 
0.278266 1.40002e-08 
0.262121 -8.36591e-09 
0.307511 -2.36926e-14 
0.311013 1.17409e-07 
0.310365 -3.1301e-08 
0.305247 -7.16863e-08 
0.295305 1.50248e-07 
0.321313 -8.74659e-15 
0.327571 -1.43317e-07 
0.32937 4.09938e-08 
0.326256 -5.25429e-08 
0.340989 1.17807e-14 
0.350115 1.24469e-07 
0.354395 -5.98708e-07 
0.366896 2.69196e-14 
0.379062 -1.24101e-06 
0.399516 3.22667e-14 
1.7626e-06 5.74212e-07 
0.0388059 4.7125e-07 
0.0774724 4.0075e-07 
0.115849 4.18365e-08 
0.153755 -1.15619e-07 
0.190966 6.27065e-10 
0.227203 -7.69312e-09 
-2.50993e-07 -9.31115e-08 
0.0395141 -3.79351e-08 
0.0795897 -5.1304e-08 
0.120046 5.2107e-08 
0.160657 -1.06366e-09 
0.201133 9.87091e-08 
1.41691e-07 -1.5232e-07 
0.0409456 8.96269e-08 
0.083162 3.59735e-08 
0.126437 -4.30466e-08 
0.170494 2.25904e-07 
-6.91257e-08 -3.43678e-08 
0.0431254 -7.73852e-08 
0.0882545 -9.90849e-09 
0.135139 2.45167e-07 
2.19365e-07 1.08757e-07 
0.0460936 7.01411e-09 
0.0949594 3.37053e-08 
-1.65242e-07 1.45443e-07 
0.0499045 -3.85375e-07 
2.40327e-06 -2.9414e-07 
</DataArray>
<DataArray type="Float64" Name="Hz_im" NumberOfComponents="1" format="ascii" >
1.11431e-13
-0.0488451
-0.0943617
-0.133446
-0.163439
-0.182292
-0.188724
-0.02469
-0.0723858
-0.115149
-0.150065
-0.174755
-0.187535
-0.0492915
-0.0952236
-0.134666
-0.164932
-0.183958
-0.0737088
-0.117254
-0.152808
-0.177949
-0.0978263
-0.138347
-0.16944
-0.121501
-0.158344
-0.144557
7.38073e-14
0.0657887
0.127094
0.179736
0.220133
0.245525
0.25419
0.0317517
0.0930904
0.148085
0.192988
0.22474
0.241176
0.0604178
0.116718
0.165064
0.202162
0.225482
0.0859821
0.136778
0.178252
0.207579
0.108476
0.153409
0.187887
0.12797
0.166774
0.144557
0.188724
0.182292
0.163439
0.133446
0.0943617
0.0488451
1.11431e-13
0.187535
0.174755
0.150065
0.115149
0.0723858
0.02469
0.183958
0.164932
0.134666
0.0952236
0.0492915
0.177949
0.152808
0.117254
0.0737088
0.16944
0.138347
0.0978263
0.158344
0.121501
0.144557
0.144557
0.121501
0.0978263
0.0737088
0.0492915
0.02469
1.11431e-13
0.12797
0.102217
0.0763791
0.0506386
0.0251406
-4.93853e-14
0.108476
0.0804454
0.0529116
0.0260515
-2.28684e-14
0.0859821
0.0561515
0.0274384
-1.3139e-14
0.0604178
0.0293268
-9.68103e-16
0.0317517
5.39669e-14
7.38073e-14
1.11431e-13
-0.02469
-0.0492915
-0.0737088
-0.0978263
-0.121501
-0.144557
-5.15527e-14
-0.0251406
-0.0506386
-0.0763791
-0.102217
-0.12797
-2.19256e-14
-0.0260515
-0.0529116
-0.0804454
-0.108476
-1.31114e-14
-0.0274384
-0.0561515
-0.0859821
-1.43018e-15
-0.0293268
-0.0604178
5.53169e-14
-0.0317517
7.38073e-14
0.188724
0.187535
0.183958
0.177949
0.16944
0.158344
0.144557
0.190447
0.190963
0.188986
0.184395
0.177045
0.166774
0.195653
0.197881
0.197469
0.194212
0.187887
0.204434
0.208415
0.20956
0.207579
0.216953
0.22276
0.225482
0.233436
0.241176
0.25419
</DataArray>
<DataArray type="Float64" Name="Hz_re" NumberOfComponents="1" format="ascii" >
1.07811e-14
1.3088e-14
-3.24205e-15
-1.46732e-14
-1.83189e-14
-6.27004e-15
-5.57226e-15
-1.25604e-14
-7.19106e-15
-3.84026e-15
-5.61577e-15
-5.28557e-15
-1.38631e-14
-5.69074e-15
-2.97732e-15
-4.07448e-15
-6.48904e-15
-7.75912e-15
-5.00107e-15
-3.14069e-15
-6.29282e-15
-5.19147e-15
-1.75703e-15
-6.89718e-15
-1.4228e-15
1.44622e-15
3.47948e-15
8.85977e-15
-4.26298e-15
5.34685e-15
1.44958e-14
1.57267e-14
4.8321e-15
-1.34873e-14
-8.52975e-15
2.23382e-14
1.0894e-14
4.2485e-15
1.01762e-14
1.08807e-14
7.20122e-15
1.43746e-14
8.01655e-15
7.1462e-15
7.36314e-15
5.60697e-15
3.03365e-15
9.59581e-15
1.23149e-14
1.13984e-14
9.49511e-15
8.46348e-15
5.248e-15
5.45385e-15
1.00611e-14
-7.95856e-15
-2.65412e-14
1.24433e-14
4.15177e-15
3.4779e-15
2.77077e-15
2.22387e-15
1.07811e-14
-1.76494e-14
6.4595e-15
4.71088e-15
5.7032e-15
2.82941e-15
1.68054e-14
-6.72941e-15
8.31932e-15
5.97844e-15
2.91596e-15
9.4537e-15
2.53862e-15
4.84185e-15
6.18745e-15
1.98647e-15
1.17417e-14
5.87761e-15
-1.83428e-15
3.66291e-14
-2.13579e-14
-7.95856e-15
-7.95856e-15
-2.13579e-14
-1.83428e-15
1.98647e-15
9.4537e-15
1.68054e-14
1.07811e-14
5.45385e-15
9.73263e-15
9.1514e-15
5.83185e-15
5.96836e-15
5.17505e-15
9.49511e-15
9.43867e-15
6.83839e-15
5.29696e-15
3.23076e-15
3.03365e-15
6.88853e-15
7.45077e-15
4.23735e-15
1.43746e-14
5.72662e-15
3.77434e-15
2.23382e-14
5.77017e-15
-4.26298e-15
1.07811e-14
-1.25604e-14
-5.69074e-15
-5.00107e-15
-1.75703e-15
1.44622e-15
8.85977e-15
5.17505e-15
-9.13417e-16
-4.75334e-15
-5.10846e-15
-3.59473e-15
-7.097e-15
3.23076e-15
-1.89373e-15
-3.95072e-15
-4.77067e-15
-5.36288e-15
4.23735e-15
-3.73615e-15
-2.86058e-15
-2.54496e-15
3.77434e-15
-3.80205e-15
-2.22877e-15
5.77017e-15
5.03685e-16
-4.26298e-15
-2.65412e-14
-1.76494e-14
-6.72941e-15
2.53862e-15
1.17417e-14
3.66291e-14
-7.95856e-15
5.26963e-15
5.84953e-15
7.30353e-15
5.53423e-15
5.98024e-15
1.00611e-14
7.692e-15
6.62141e-15
7.50161e-15
6.30676e-15
5.248e-15
3.33828e-15
5.41071e-15
8.39695e-15
1.13984e-14
9.47338e-15
7.78214e-15
5.60697e-15
6.29992e-15
7.20122e-15
-8.52975e-15
</DataArray>
<DataArray type="Float64" Name="Pz_im" NumberOfComponents="1" format="ascii" >
9.25723e-13
-6.1893e-14
-3.7617e-13
-1.79212e-13
1.2683e-13
1.96126e-13
3.55282e-14
8.16091e-15
-8.25626e-14
-4.61925e-14
-3.86501e-14
-1.03939e-13
1.22222e-13
6.33252e-14
-3.63721e-13
-1.67491e-13
3.9626e-14
1.09125e-13
5.10204e-14
-4.4583e-13
7.85338e-15
-1.19433e-13
1.34064e-13
4.78452e-14
-1.40856e-13
-2.79042e-14
-2.94953e-13
-2.98462e-12
1.32682e-12
-9.87526e-13
-5.48691e-13
-3.04854e-13
-2.32826e-13
2.04933e-13
-3.96715e-13
-6.00071e-13
-1.44972e-13
2.20251e-13
-1.85383e-13
-3.70059e-13
-1.2618e-13
-3.38152e-13
-6.5549e-13
-3.2624e-13
-1.69729e-15
4.10727e-14
6.66376e-13
-4.88638e-13
1.91702e-13
-1.51722e-13
1.18603e-12
1.27729e-13
-5.81372e-13
6.21898e-13
-8.82712e-13
-5.86584e-13
-1.51159e-13
2.18717e-14
-1.70255e-14
-1.70109e-13
-2.58876e-13
-3.61488e-13
-1.15019e-12
-1.55955e-15
9.7774e-14
-3.91591e-14
-1.42731e-13
-7.57572e-14
-1.70926e-13
-3.83354e-15
-3.21386e-15
-1.54871e-13
-1.33114e-13
4.20985e-14
5.47408e-15
1.69355e-14
-7.6941e-14
-1.02231e-14
-1.12979e-14
-5.08832e-14
-3.31296e-13
-4.84549e-14
-6.78436e-13
1.87526e-13
-1.81381e-13
8.00359e-13
1.16175e-12
1.07245e-12
6.88256e-13
-1.73838e-14
-1.42188e-12
4.66784e-13
-1.20808e-12
-1.37813e-12
-1.0815e-12
-7.24628e-13
-2.50779e-13
1.09929e-12
-4.76468e-14
-1.31379e-13
-2.76921e-13
-3.32065e-13
-8.95773e-14
-4.82783e-14
-5.49946e-14
-2.00731e-13
-1.27382e-12
-9.81939e-13
-6.21756e-13
-1.04464e-13
-1.17137e-12
3.18169e-12
-1.32544e-12
-5.46238e-13
-2.83939e-13
-4.12776e-13
-2.5748e-13
1.41826e-13
-1.23525e-12
-1.90564e-13
-5.63714e-13
-6.33546e-13