<VTKFile type="UnstructuredGrid" version="0.1" byte_order="LittleEndian">
<UnstructuredGrid>
<Piece NumberOfPoints="0" NumberOfCells="0">
<Points>
<DataArray type="Float64" NumberOfComponents="3" format="ascii">
</DataArray>
</Points>
<Cells>
<DataArray type="Int32" Name="connectivity" format="ascii">
</DataArray>
<DataArray type="Int32" Name="offsets" format="ascii">
</DataArray>
<DataArray type="UInt8" Name="types" format="ascii">
</DataArray>
</Cells>
<CellData Scalars="attribute">
<DataArray type="Int32" Name="attribute" format="ascii">
</DataArray>
</CellData>
<PointData >
<DataArray type="Float64" Name="Et_im" NumberOfComponents="2" format="ascii" >
</DataArray>
<DataArray type="Float64" Name="Et_re" NumberOfComponents="2" format="ascii" >
</DataArray>
<DataArray type="Float64" Name="Ez_im" NumberOfComponents="1" format="ascii" >
</DataArray>
<DataArray type="Float64" Name="Ez_re" NumberOfComponents="1" format="ascii" >
</DataArray>
<DataArray type="Float64" Name="Ht_im" NumberOfComponents="2" format="ascii" >
</DataArray>
<DataArray type="Float64" Name="Ht_re" NumberOfComponents="2" format="ascii" >
</DataArray>
<DataArray type="Float64" Name="Hz_im" NumberOfComponents="1" format="ascii" >
</DataArray>
<DataArray type="Float64" Name="Hz_re" NumberOfComponents="1" format="ascii" >
</DataArray>
<DataArray type="Float64" Name="Pz_im" NumberOfComponents="1" format="ascii" >
</DataArray>
<DataArray type="Float64" Name="Pz_re" NumberOfComponents="1" format="ascii" >
</DataArray>
</PointData>
</Piece>
</UnstructuredGrid>
</VTKFile>
