<VTKFile type="UnstructuredGrid" version="0.1" byte_order="LittleEndian">
<UnstructuredGrid>
<Piece NumberOfPoints="280" NumberOfCells="10">
<Points>
<DataArray type="Float64" NumberOfComponents="3" format="ascii">
-0.01 0.0045 0
-0.0116667 0.0045 0
-0.0133333 0.0045 0
-0.015 0.0045 0
-0.0166667 0.0045 0
-0.0183333 0.0045 0
-0.02 0.0045 0
-0.0108333 0.004125 0
-0.0125 0.004125 0
-0.0141667 0.004125 0
-0.0158333 0.004125 0
-0.0175 0.004125 0
-0.0191667 0.004125 0
-0.0116667 0.00375 0
-0.0133333 0.00375 0
-0.015 0.00375 0
-0.0166667 0.00375 0
-0.0183333 0.00375 0
-0.0125 0.003375 0
-0.0141667 0.003375 0
-0.0158333 0.003375 0
-0.0175 0.003375 0
-0.0133333 0.003 0
-0.015 0.003 0
-0.0166667 0.003 0
-0.0141667 0.002625 0
-0.0158333 0.002625 0
-0.015 0.00225 0
-0.01 0 0
-0.00833333 0 0
-0.00666667 0 0
-0.005 0 0
-0.00333333 0 0
-0.00166667 0 0
0 0 0
-0.00916667 0.000375 0
-0.0075 0.000375 0
-0.00583333 0.000375 0
-0.00416667 0.000375 0
-0.0025 0.000375 0
-0.000833333 0.000375 0
-0.00833333 0.00075 0
-0.00666667 0.00075 0
-0.005 0.00075 0
-0.00333333 0.00075 0
-0.00166667 0.00075 0
-0.0075 0.001125 0
-0.00583333 0.001125 0
-0.00416667 0.001125 0
-0.0025 0.001125 0
-0.00666667 0.0015 0
-0.005 0.0015 0
-0.00333333 0.0015 0
-0.00583333 0.001875 0
-0.00416667 0.001875 0
-0.005 0.00225 0
0 0.0045 0
-0.00166667 0.0045 0
-0.00333333 0.0045 0
-0.005 0.0045 0
-0.00666667 0.0045 0
-0.00833333 0.0045 0
-0.01 0.0045 0
-0.000833333 0.004125 0
-0.0025 0.004125 0
-0.00416667 0.004125 0
-0.00583333 0.004125 0
-0.0075 0.004125 0
-0.00916667 0.004125 0
-0.00166667 0.00375 0
-0.00333333 0.00375 0
-0.005 0.00375 0
-0.00666667 0.00375 0
-0.00833333 0.00375 0
-0.0025 0.003375 0
-0.00416667 0.003375 0
-0.00583333 0.003375 0
-0.0075 0.003375 0
-0.00333333 0.003 0
-0.005 0.003 0
-0.00666667 0.003 0
-0.00416667 0.002625 0
-0.00583333 0.002625 0
-0.005 0.00225 0
-0.02 0 0
-0.0183333 0 0
-0.0166667 0 0
-0.015 0 0
-0.0133333 0 0
-0.0116667 0 0
-0.01 0 0
-0.0191667 0.000375 0
-0.0175 0.000375 0
-0.0158333 0.000375 0
-0.0141667 0.000375 0
-0.0125 0.000375 0
-0.0108333 0.000375 0
-0.0183333 0.00075 0
-0.0166667 0.00075 0
-0.015 0.00075 0
-0.0133333 0.00075 0
-0.0116667 0.00075 0
-0.0175 0.001125 0
-0.0158333 0.001125 0
-0.0141667 0.001125 0
-0.0125 0.001125 0
-0.0166667 0.0015 0
-0.015 0.0015 0
-0.0133333 0.0015 0
-0.0158333 0.001875 0
-0.0141667 0.001875 0
-0.015 0.00225 0
-0.005 0.00225 0
-0.00583333 0.002625 0
-0.00666667 0.003 0
-0.0075 0.003375 0
-0.00833333 0.00375 0
-0.00916667 0.004125 0
-0.01 0.0045 0
-0.00583333 0.001875 0
-0.00666667 0.00225 0
-0.0075 0.002625 0
-0.00833333 0.003 0
-0.00916667 0.003375 0
-0.01 0.00375 0
-0.00666667 0.0015 0
-0.0075 0.001875 0
-0.00833333 0.00225 0
-0.00916667 0.002625 0
-0.01 0.003 0
-0.0075 0.001125 0
-0.00833333 0.0015 0
-0.00916667 0.001875 0
-0.01 0.00225 0
-0.00833333 0.00075 0
-0.00916667 0.001125 0
-0.01 0.0015 0
-0.00916667 0.000375 0
-0.01 0.00075 0
-0.01 0 0
-0.005 0.00225 0
-0.00416667 0.001875 0
-0.00333333 0.0015 0
-0.0025 0.001125 0
-0.00166667 0.00075 0
-0.000833333 0.000375 0
0 0 0
-0.00416667 0.002625 0
-0.00333333 0.00225 0
-0.0025 0.001875 0
-0.00166667 0.0015 0
-0.000833333 0.001125 0
1.38778e-19 0.00075 0
-0.00333333 0.003 0
-0.0025 0.002625 0
-0.00166667 0.00225 0
-0.000833333 0.001875 0
-2.77556e-19 0.0015 0
-0.0025 0.003375 0
-0.00166667 0.003 0
-0.000833333 0.002625 0
0 0.00225 0
-0.00166667 0.00375 0
-0.000833333 0.003375 0
-5.55112e-19 0.003 0
-0.000833333 0.004125 0
0 0.00375 0
0 0.0045 0
-0.02 0 0
-0.0191667 0.000375 0
-0.0183333 0.00075 0
-0.0175 0.001125 0
-0.0166667 0.0015 0
-0.0158333 0.001875 0
-0.015 0.00225 0
-0.02 0.00075 0
-0.0191667 0.001125 0
-0.0183333 0.0015 0
-0.0175 0.001875 0
-0.0166667 0.00225 0
-0.0158333 0.002625 0
-0.02 0.0015 0
-0.0191667 0.001875 0
-0.0183333 0.00225 0
-0.0175 0.002625 0
-0.0166667 0.003 0
-0.02 0.00225 0
-0.0191667 0.002625 0
-0.0183333 0.003 0
-0.0175 0.003375 0
-0.02 0.003 0
-0.0191667 0.003375 0
-0.0183333 0.00375 0
-0.02 0.00375 0
-0.0191667 0.004125 0
-0.02 0.0045 0
-0.015 0.00225 0
-0.0141667 0.001875 0
-0.0133333 0.0015 0
-0.0125 0.001125 0
-0.0116667 0.00075 0
-0.0108333 0.000375 0
-0.01 0 0
-0.0141667 0.002625 0
-0.0133333 0.00225 0
-0.0125 0.001875 0
-0.0116667 0.0015 0
-0.0108333 0.001125 0
-0.01 0.00075 0
-0.0133333 0.003 0
-0.0125 0.002625 0
-0.0116667 0.00225 0
-0.0108333 0.001875 0
-0.01 0.0015 0
-0.0125 0.003375 0
-0.0116667 0.003 0
-0.0108333 0.002625 0
-0.01 0.00225 0
-0.0116667 0.00375 0
-0.0108333 0.003375 0
-0.01 0.003 0
-0.0108333 0.004125 0
-0.01 0.00375 0
-0.01 0.0045 0
-0.02 0.0045 0
-0.0183333 0.0045 0
-0.0166667 0.0045 0
-0.015 0.0045 0
-0.0133333 0.0045 0
-0.0116667 0.0045 0
-0.01 0.0045 0
-0.0191667 0.004875 0
-0.0175 0.004875 0
-0.0158333 0.004875 0
-0.0141667 0.004875 0
-0.0125 0.004875 0
-0.0108333 0.004875 0
-0.0183333 0.00525 0
-0.0166667 0.00525 0
-0.015 0.00525 0
-0.0133333 0.00525 0
-0.0116667 0.00525 0
-0.0175 0.005625 0
-0.0158333 0.005625 0
-0.0141667 0.005625 0
-0.0125 0.005625 0
-0.0166667 0.006 0
-0.015 0.006 0
-0.0133333 0.006 0
-0.0158333 0.006375 0
-0.0141667 0.006375 0
-0.015 0.00675 0
-0.015 0.00675 0
-0.0158333 0.007125 0
-0.0166667 0.0075 0
-0.0175 0.007875 0
-0.0183333 0.00825 0
-0.0191667 0.008625 0
-0.02 0.009 0
-0.0158333 0.006375 0
-0.0166667 0.00675 0
-0.0175 0.007125 0
-0.0183333 0.0075 0
-0.0191667 0.007875 0
-0.02 0.00825 0
-0.0166667 0.006 0
-0.0175 0.006375 0
-0.0183333 0.00675 0
-0.0191667 0.007125 0
-0.02 0.0075 0
-0.0175 0.005625 0
-0.0183333 0.006 0
-0.0191667 0.006375 0
-0.02 0.00675 0
-0.0183333 0.00525 0
-0.0191667 0.005625 0
-0.02 0.006 0
-0.0191667 0.004875 0
-0.02 0.00525 0
-0.02 0.0045 0
</DataArray>
</Points>
<Cells>
<DataArray type="Int32" Name="connectivity" format="ascii">
0 6 27 1 2 3 4 5 12 17 21 24 26 25 22 18 13 7 8 11 23 9 10 16 20 19 14 15 
28 34 55 29 30 31 32 33 40 45 49 52 54 53 50 46 41 35 36 39 51 37 38 44 48 47 42 43 
56 62 83 57 58 59 60 61 68 73 77 80 82 81 78 74 69 63 64 67 79 65 66 72 76 75 70 71 
84 90 111 85 86 87 88 89 96 101 105 108 110 109 106 102 97 91 92 95 107 93 94 100 104 103 98 99 
112 118 139 113 114 115 116 117 124 129 133 136 138 137 134 130 125 119 120 123 135 121 122 128 132 131 126 127 
140 146 167 141 142 143 144 145 152 157 161 164 166 165 162 158 153 147 148 151 163 149 150 156 160 159 154 155 
168 174 195 169 170 171 172 173 180 185 189 192 194 193 190 186 181 175 176 179 191 177 178 184 188 187 182 183 
196 202 223 197 198 199 200 201 208 213 217 220 222 221 218 214 209 203 204 207 219 205 206 212 216 215 210 211 
224 230 251 225 226 227 228 229 236 241 245 248 250 249 246 242 237 231 232 235 247 233 234 240 244 243 238 239 
252 258 279 253 254 255 256 257 264 269 273 276 278 277 274 270 265 259 260 263 275 261 262 268 272 271 266 267 
</DataArray>
<DataArray type="Int32" Name="offsets" format="ascii">
28
56
84
112
140
168
196
224
252
280
</DataArray>
<DataArray type="UInt8" Name="types" format="ascii">
69
69
69
69
69
69
69
69
69
69
</DataArray>
</Cells>
<CellData Scalars="attribute">
<DataArray type="Int32" Name="attribute" format="ascii">
1
1
1
1
1
1
1
1
2
2
</DataArray>
</CellData>
<PointData >
<DataArray type="Float64" Name="Et_im" NumberOfComponents="2" format="ascii" >
1.24601e-11 3.83176e-12 
-1.46086e-12 5.13308e-12 
1.06713e-12 4.342e-12 
6.36652e-13 -2.15958e-12 
-1.79261e-12 -6.63671e-12 
-9.82111e-13 -3.80072e-12 
-3.50262e-12 -1.55183e-12 
1.70196e-12 3.0632e-12 
-4.73678e-14 6.09076e-12 
9.20774e-13 5.97025e-12 
-9.83444e-13 4.07874e-12 
-1.21339e-12 3.68541e-12 
-1.2888e-12 -3.51778e-13 
-1.81133e-13 6.38709e-12 
8.04843e-13 3.86181e-12 
-9.54784e-19 2.13895e-13 
-8.49969e-13 2.79729e-13 
-3.85243e-13 2.57613e-12 
-4.0113e-15 6.77097e-12 
2.84338e-13 3.69767e-12 
-2.31411e-13 1.6228e-12 
9.46487e-13 5.91592e-12 
5.32042e-13 4.78612e-12 
-2.18836e-13 6.88874e-12 
1.46444e-12 7.49682e-12 
1.50406e-12 3.44495e-12 
-8.44151e-14 5.70853e-12 
1.96012e-13 5.78533e-12 
-8.53449e-15 6.53585e-12 
-2.04169e-15 1.1121e-11 
-1.18534e-14 1.3236e-11 
-1.30408e-14 1.03004e-11 
-8.52472e-15 4.96491e-12 
-7.82973e-15 2.00472e-12 
-5.83901e-15 5.82135e-12 
2.90728e-13 8.61564e-12 
1.65099e-13 7.79149e-12 
-1.9392e-13 6.47778e-12 
-3.25245e-13 4.59071e-12 
-8.62495e-14 2.5992e-12 
3.45668e-13 -2.96511e-13 
2.31804e-13 8.99621e-12 
-9.80029e-14 7.91065e-12 
-3.29061e-13 6.27572e-12 
-2.60987e-13 4.74307e-12 
-4.13579e-13 1.48518e-12 
3.06715e-13 7.4828e-12 
-3.68361e-13 7.51071e-12 
-3.37738e-13 5.37308e-12 
-5.94795e-13 2.31538e-12 
6.4302e-13 5.63667e-12 
-5.44878e-13 5.85009e-12 
-7.4816e-13 1.92212e-12 
5.42474e-13 6.58713e-12 
-1.30003e-12 4.35835e-12 
-8.38658e-13 1.23067e-11 
1.59234e-12 -1.38586e-12 
8.47055e-13 -3.28425e-12 
8.35076e-14 -7.37254e-12 
-1.24177e-12 -3.6542e-12 
-1.91157e-12 3.36591e-12 
-1.07317e-12 7.25816e-12 
-3.63503e-13 1.10858e-11 
1.6396e-12 -5.43938e-13 
1.67699e-13 2.83675e-12 
-1.44922e-13 4.35753e-12 
-1.11193e-12 6.8608e-12 
-1.57838e-12 7.46068e-12 
4.97591e-13 8.73096e-12 
6.47463e-13 1.78245e-12 
-1.80457e-13 2.85444e-12 
-4.6005e-13 3.94839e-12 
-1.45244e-12 5.61408e-12 
-1.25903e-13 8.93329e-12 
-5.35832e-13 2.7261e-12 
-2.08372e-13 2.91057e-12 
-6.79086e-13 5.05689e-12 
-4.53378e-13 9.30985e-12 
-1.00898e-12 4.28409e-12 
-7.98215e-14 6.31891e-12 
-3.39395e-13 9.17782e-12 
-2.61936e-13 4.84693e-12 
-4.30355e-13 6.21333e-12 
-5.06755e-13 -5.07989e-12 
2.5374e-14 -3.61411e-12 
3.01413e-16 1.20755e-12 
2.31362e-15 2.15579e-12 
5.84071e-15 3.66744e-12 
5.45709e-15 6.54182e-12 
6.84048e-15 8.01187e-12 
1.77308e-14 1.60106e-12 
1.29746e-13 1.01842e-12 
-1.98831e-13 2.35309e-12 
-1.22229e-13 4.0305e-12 
1.17705e-13 5.68183e-12 
1.38648e-13 7.36231e-12 
-5.83209e-13 9.02549e-12 
-4.8836e-13 1.34746e-12 
-2.09256e-13 2.74771e-12 
-4.25616e-14 4.97221e-12 
1.47031e-13 6.02387e-12 
2.45839e-13 7.60391e-12 
-7.37263e-13 2.30436e-12 
7.74342e-15 3.61119e-12 
-8.14571e-14 5.44947e-12 
2.1434e-13 6.4357e-12 
-6.854e-13 3.77098e-12 
7.54973e-14 4.72138e-12 
-2.72486e-14 7.32311e-12 
-3.70189e-13 3.35931e-12 
5.71669e-13 6.96543e-12 
1.16555e-12 -3.03307e-13 
3.23927e-12 3.24462e-12 
-7.80603e-13 5.435e-12 
-2.1259e-12 5.20781e-12 
-2.08808e-12 5.67718e-12 
-1.20203e-12 6.54191e-12 
-2.88755e-13 6.98353e-12 
-1.54082e-12 8.46959e-12 
1.21998e-12 5.08156e-12 
-7.03813e-13 8.32652e-12 
-5.77715e-13 8.93524e-12 
-1.37188e-13 8.86602e-12 
5.41745e-13 8.43611e-12 
1.91999e-12 9.01093e-12 
2.11634e-13 6.5953e-12 
-7.1718e-13 8.44372e-12 
-3.94937e-13 8.73821e-12 
1.20742e-13 8.24756e-12 
2.19067e-12 7.3997e-12 
-2.46922e-13 8.71311e-12 
-2.45921e-13 8.8806e-12 
4.9611e-15 8.98256e-12 
1.2008e-12 7.8649e-12 
-2.56251e-13 1.00808e-11 
5.03383e-13 9.65006e-12 
4.87433e-13 9.53966e-12 
1.72951e-13 8.87737e-12 
4.1836e-13 9.43525e-12 
4.95778e-13 5.41516e-12 
-4.58469e-12 3.98218e-12 
-1.0962e-12 4.8113e-12 
9.31761e-14 3.79175e-12 
-2.2401e-13 3.13935e-12 
-3.34946e-14 2.32981e-12 
7.77243e-13 6.62544e-13 
-2.63911e-12 -3.03567e-14 
-7.43155e-13 5.91631e-12 
-5.21056e-14 4.23742e-12 
3.17171e-14 2.89116e-12 
4.00631e-14 2.17419e-12 
5.23485e-13 1.07817e-12 
-1.03186e-12 -8.59341e-15 
-9.48919e-13 4.15062e-12 
-1.58747e-13 2.55352e-12 
1.83112e-13 1.64509e-12 
4.37953e-13 8.86342e-13 
-1.9991e-13 -2.6227e-15 
-3.67147e-13 2.35125e-12 
4.89602e-13 1.55763e-12 
6.46983e-13 8.43453e-13 
3.64752e-13 -4.74094e-15 
8.63054e-13 1.30336e-12 
8.82849e-13 9.51132e-13 
6.58609e-13 -1.08433e-14 
1.18512e-12 4.66033e-13 
6.79423e-13 -1.79081e-14 
9.78371e-13 -2.14818e-14 
-1.59891e-12 -4.58118e-15 
1.10553e-13 1.06107e-12 
-4.54773e-13 1.27282e-12 
-7.03769e-13 2.22993e-12 
-5.07932e-13 3.37661e-12 
-5.46309e-13 3.75069e-12 
-6.89161e-13 3.81828e-12 
-5.29497e-13 1.77245e-14 
-3.76321e-13 8.32121e-13 
-7.44024e-13 1.58881e-12 
-6.94377e-13 2.58998e-12 
-6.82899e-13 3.30862e-12 
-8.54111e-13 3.9981e-12 
-5.74834e-13 1.2717e-14 
-6.02956e-13 6.29762e-13 
-7.03692e-13 1.53851e-12 
-7.08445e-13 2.29572e-12 
-6.51444e-13 2.79485e-12 
-1.02796e-12 1.80933e-14 
-7.19103e-13 7.02666e-13 
-8.27895e-13 1.5157e-12 
-9.3037e-13 1.74512e-12 
-1.43172e-12 2.40481e-14 
-8.28117e-13 7.20026e-13 
-1.18069e-12 8.08462e-13 
-1.74164e-12 1.61179e-14 
-1.18841e-12 -1.28672e-13 
-2.79619e-12 1.80253e-14 
2.05072e-12 1.66375e-12 
-2.58784e-12 -5.5708e-14 
-3.7295e-12 -9.04102e-13 
-3.01041e-12 -7.30407e-13 
-2.56896e-12 1.3488e-12 
-2.47376e-12 4.82425e-12 
1.73408e-12 5.41516e-12 
8.54245e-13 4.88898e-12 
7.38328e-13 8.11282e-12 
1.61756e-12 9.93165e-12 
1.61332e-12 1.03371e-11 
-2.15009e-13 1.05668e-11 
-1.95499e-12 9.43525e-12 
-8.6768e-13 7.89661e-12 
-1.10593e-12 5.19199e-12 
-3.63853e-13 4.64195e-12 
-5.67564e-13 6.21067e-12 
-1.66136e-12 9.53966e-12 
-2.51534e-12 1.23517e-11 
-1.09437e-13 6.98731e-12 
1.37251e-12 6.10503e-12 
2.93057e-13 7.8649e-12 
-1.76934e-12 9.91644e-12 
2.58686e-12 9.68699e-12 
-1.44962e-12 7.3997e-12 
3.55705e-12 -1.05921e-12 
-5.1713e-12 9.01093e-12 
1.03731e-11 8.46959e-12 
-3.50262e-12 6.02035e-12 
-9.82111e-13 2.62539e-12 
-1.79261e-12 6.48182e-12 
6.36652e-13 5.17619e-12 
1.06713e-12 2.99301e-12 
-1.46086e-12 6.51453e-12 
1.24601e-11 1.05412e-11 
-2.57644e-12 3.95326e-12 
-1.03795e-12 2.03844e-12 
-7.86756e-13 6.00766e-12 
9.41236e-13 6.52252e-12 
-2.41804e-14 6.72407e-12 
1.28866e-12 8.46728e-12 
-2.00396e-12 4.33272e-12 
-7.92133e-13 3.79871e-12 
-2.50837e-14 5.04779e-12 
7.38956e-13 4.67361e-12 
-1.72248e-13 7.74822e-12 
-1.22986e-12 3.98205e-12 
-6.48551e-13 4.01867e-12 
3.86544e-13 3.75642e-12 
1.46303e-12 8.29529e-12 
-8.5631e-13 5.21232e-12 
-5.83626e-13 4.54576e-12 
2.45027e-12 7.89375e-12 
-1.545e-12 5.87868e-12 
1.04374e-12 3.05388e-12 
-3.24299e-12 -9.84367e-12 
-1.09016e-11 7.17535e-12 
1.21889e-12 5.77929e-12 
1.03282e-12 4.65817e-12 
9.82689e-13 6.453e-12 
3.36203e-12 8.9241e-12 
4.22651e-12 7.77289e-12 
-2.47536e-12 -4.82214e-14 
-1.13038e-12 4.95731e-12 
-9.77524e-13 2.76381e-12 
-8.46977e-13 8.97949e-13 
7.63033e-14 -2.35791e-13 
-2.28144e-13 -1.09568e-12 
-2.6976e-12 -1.25928e-15 
-8.82684e-13 5.27093e-12 
-9.29061e-14 4.0671e-12 
6.27089e-13 2.98994e-12 
-1.00452e-13 9.33504e-13 
8.03051e-13 -2.22167e-14 
-1.00247e-12 3.47675e-12 
1.86952e-13 2.34178e-12 
-1.01722e-12 1.83632e-12 
1.21741e-12 -1.3092e-14 
-1.02457e-12 2.15632e-12 
-1.63081e-12 -1.43873e-13 
7.57512e-13 -3.95327e-15 
-2.38854e-12 3.53571e-12 
2.08053e-12 -2.59374e-14 
-8.00551e-13 1.57498e-14 
</DataArray>
<DataArray type="Float64" Name="Et_re" NumberOfComponents="2" format="ascii" >
0.00135699 -92.4179 
12.964 -89.268 
25.045 -80.0355 
35.4185 -65.349 
43.3789 -46.2084 
48.3828 -23.9194 
50.0904 0.00133395 
6.14771 -101.48 
18.0247 -94.5646 
28.673 -81.2046 
37.3674 -62.3103 
43.5154 -39.17 
46.6977 -13.3598 
11.3405 -107.849 
21.9083 -96.6947 
30.9828 -78.9509 
37.9462 -55.8267 
42.3234 -28.8979 
15.406 -111.097 
24.5073 -95.4016 
31.9385 -73.2041 
37.1932 -46.0181 
18.2233 -110.934 
25.7716 -90.5768 
31.5636 -64.0475 
19.7281 -107.211 
25.7102 -82.2656 
19.9152 -99.9356 
-2.11334e-14 -158.934 
-9.55052e-17 -153.519 
-3.36329e-14 -137.641 
-2.01007e-14 -112.384 
-3.92373e-15 -79.4672 
1.36572e-16 -41.1352 
4.27342e-15 0.000428764 
-0.635955 -157.081 
-1.86377 -146.376 
-2.96494 -125.696 
-3.86383 -96.4501 
-4.49968 -60.631 
-4.82839 -20.6796 
-2.51322 -151.598 
-4.85514 -135.919 
-6.8661 -110.977 
-8.40923 -78.4728 
-9.37923 -40.6203 
-5.54472 -142.712 
-8.82048 -122.55 
-11.4949 -94.0358 
-13.3862 -59.1134 
-9.58865 -130.794 
-13.5604 -106.793 
-16.608 -75.514 
-14.4552 -116.336 
-18.8384 -89.268 
-19.9152 -99.9356 
-50.0904 0.00133395 
-48.3828 -23.9194 
-43.3789 -46.2084 
-35.4185 -65.349 
-25.045 -80.0355 
-12.964 -89.268 
-0.00135699 -92.4179 
-46.6977 -13.3598 
-43.5154 -39.17 
-37.3674 -62.3103 
-28.673 -81.2046 
-18.0247 -94.5646 
-6.14771 -101.48 
-42.3234 -28.8979 
-37.9462 -55.8267 
-30.9828 -78.9509 
-21.9083 -96.6947 
-11.3405 -107.849 
-37.1932 -46.0181 
-31.9385 -73.2041 
-24.5073 -95.4016 
-15.406 -111.097 
-31.5636 -64.0475 
-25.7716 -90.5768 
-18.2233 -110.934 
-25.7102 -82.2656 
-19.7281 -107.211 
-19.9152 -99.9356 
3.39939e-14 0.000428764 
7.33044e-16 -41.1352 
2.87564e-14 -79.4672 
2.29067e-14 -112.384 
1.45706e-14 -137.641 
8.30632e-15 -153.519 
-1.25761e-14 -158.934 
4.82839 -20.6796 
4.49968 -60.631 
3.86383 -96.4501 
2.96494 -125.696 
1.86377 -146.376 
0.635955 -157.081 
9.37923 -40.6203 
8.40923 -78.4728 
6.8661 -110.977 
4.85514 -135.919 
2.51322 -151.598 
13.3862 -59.1134 
11.4949 -94.0358 
8.82048 -122.55 
5.54472 -142.712 
16.608 -75.514 
13.5604 -106.793 
9.58865 -130.794 
18.8384 -89.268 
14.4552 -116.336 
19.9152 -99.9356 
-19.9152 -99.9356 
-19.7282 -107.211 
-18.2233 -110.934 
-15.406 -111.097 
-11.3405 -107.849 
-6.14779 -101.481 
-0.00082924 -92.4168 
-14.4551 -116.336 
-14.0822 -122.396 
-12.4016 -124.849 
-9.43309 -123.73 
-5.25462 -119.222 
-0.000146312 -111.653 
-9.58859 -130.794 
-9.08692 -135.476 
-7.28947 -136.515 
-4.22998 -133.98 
5.00947e-05 -128.095 
-5.54467 -142.712 
-4.96341 -145.882 
-3.09937 -145.384 
-2.94177e-08 -141.33 
-2.51312 -151.598 
-1.89124 -153.149 
-1.85406e-05 -151.028 
-0.635728 -157.081 
0.000107412 -156.945 
0.000193551 -158.935 
-19.9152 -99.9356 
-18.8383 -89.2679 
-16.608 -75.514 
-13.3862 -59.1133 
-9.3793 -40.6204 
-4.82859 -20.6801 
-0.000192944 3.65566e-14 
-25.7102 -82.2657 
-24.3911 -70.6651 
-21.9378 -56.1162 
-18.5239 -39.0889 
-14.3651 -20.1625 
-9.71027 3.29794e-13 
-31.5636 -64.0475 
-29.9402 -51.7143 
-27.2047 -36.579 
-23.5421 -19.1401 
-19.1773 1.31485e-13 
-37.1932 -46.0182 
-35.2047 -33.1534 
-32.1298 -17.6388 
-28.1644 1.24339e-13 
-42.3234 -28.8981 
-39.9132 -15.6959 
-36.4465 -3.06857e-13 
-46.6976 -13.3601 
-43.8165 -1.8003e-13 
-50.0898 -3.94809e-14 
0.000192944 1.37097e-13 
4.82859 -20.6801 
9.3793 -40.6204 
13.3862 -59.1133 
16.608 -75.514 
18.8383 -89.2679 
19.9152 -99.9356 
9.71027 5.91595e-15 
14.3651 -20.1625 
18.5239 -39.0889 
21.9378 -56.1162 
24.3911 -70.6651 
25.7102 -82.2657 
19.1773 -3.16426e-14 
23.5421 -19.1401 
27.2047 -36.579 
29.9402 -51.7143 
31.5636 -64.0475 
28.1644 -1.6226e-15 
32.1298 -17.6388 
35.2047 -33.1534 
37.1932 -46.0182 
36.4465 -4.04923e-15 
39.9132 -15.6959 
42.3234 -28.8981 
43.8165 -2.43384e-15 
46.6976 -13.3601 
50.0898 -4.53002e-14 
19.9152 -99.9356 
14.4551 -116.336 
9.58859 -130.794 
5.54467 -142.712 
2.51312 -151.598 
0.635728 -157.081 
-0.000193551 -158.935 
19.7282 -107.211 
14.0822 -122.396 
9.08692 -135.476 
4.96341 -145.882 
1.89124 -153.149 
-0.000107412 -156.945 
18.2233 -110.934 
12.4016 -124.849 
7.28947 -136.515 
3.09937 -145.384 
1.85406e-05 -151.028 
15.406 -111.097 
9.43309 -123.73 
4.22998 -133.98 
2.94403e-08 -141.33 
11.3405 -107.849 
5.25462 -119.222 
-5.00946e-05 -128.095 
6.14779 -101.481 
0.000146312 -111.653 
0.00082924 -92.4168 
50.0904 -0.00199283 
48.3828 -58.567 
43.3789 -113.144 
35.4185 -160.008 
25.045 -195.97 
12.964 -218.576 
0.00135699 -226.286 
44.7636 -28.2671 
41.7127 -82.8722 
35.8195 -131.831 
27.4851 -171.805 
17.2782 -200.071 
5.89253 -214.704 
39.0382 -53.7861 
35.001 -103.907 
28.5779 -146.946 
20.2078 -179.972 
10.4599 -200.733 
33.1356 -76.544 
28.4544 -121.764 
21.8336 -158.686 
13.7254 -184.794 
27.2624 -96.5694 
22.2596 -136.57 
15.7401 -167.263 
21.6092 -113.924 
16.5813 -148.468 
16.3482 -128.69 
16.3482 -128.69 
15.1591 -108.165 
13.1485 -87.0884 
10.4645 -65.6183 
7.26612 -43.881 
3.7205 -21.9794 
0.000175672 -7.48994e-15 
21.6092 -113.924 
20.0225 -90.9974 
17.6531 -67.9954 
14.6652 -45.0804 
11.2297 -22.3811 
7.5225 5.55566e-14 
27.2625 -96.5695 
25.1645 -71.6153 
22.3321 -47.1037 
18.9441 -23.192 
15.1825 1.67656e-14 
33.1357 -76.5443 
30.4073 -49.9881 
27.0048 -24.4267 
23.12 -1.10436e-13 
39.0382 -53.7861 
35.5591 -26.1079 
31.48 -1.81901e-13 
44.7632 -28.2662 
40.4153 -6.06258e-14 
50.0895 -3.43193e-14 
</DataArray>
<DataArray type="Float64" Name="Ez_im" NumberOfComponents="1" format="ascii" >
-78.7268
-76.0442
-68.1793
-55.6682
-39.3634
-20.3759
-1.36704e-14
-73.3956
-68.3938
-58.731
-45.066
-28.3296
-9.66271
-66.5205
-59.6406
-48.6964
-34.4335
-17.8241
-58.4573
-50.1984
-38.5186
-24.2138
-49.6092
-40.5057
-28.6419
-40.4092
-31.0071
-31.3012
-3.41508e-14
2.132e-13
1.46065e-13
-2.74982e-14
-7.0823e-14
-6.44313e-15
-2.2386e-15
-7.58932
-7.07215
-6.07296
-4.65995
-2.92939
-0.999146
-14.7416
-13.217
-10.7916
-7.63085
-3.95
-21.0394
-18.0669
-13.8632
-8.7148
-26.1031
-21.3131
-15.0707
-29.6086
-22.7195
-31.3012
-4.35785e-14
-20.3759
-39.3634
-55.6682
-68.1793
-76.0442
-78.7268
-9.66271
-28.3296
-45.066
-58.731
-68.3938
-73.3956
-17.8241
-34.4335
-48.6964
-59.6406
-66.5205
-24.2138
-38.5186
-50.1984
-58.4573
-28.6419
-40.5057
-49.6092
-31.0071
-40.4092
-31.3012
-4.93003e-15
2.41991e-13
1.71234e-13
-5.13306e-15
5.19678e-14
3.6926e-14
-3.41508e-14
-0.999146
-2.92939
-4.65995
-6.07296
-7.07215
-7.58932
-3.95
-7.63085
-10.7916
-13.217
-14.7416
-8.7148
-13.8632
-18.0669
-21.0394
-15.0707
-21.3131
-26.1031
-22.7195
-29.6086
-31.3012
-31.3012
-40.4092
-49.6092
-58.4573
-66.5205
-73.3956
-78.7268
-29.6086
-38.3359
-47.0576
-55.3318
-62.7324
-68.8671
-26.1031
-34.48
-42.7582
-50.499
-57.2837
-21.0394
-29.1143
-37.0016
-44.2665
-14.7416
-22.578
-30.1413
-7.58932
-15.2617
-3.41508e-14
-31.3012
-22.7195
-15.0707
-8.7148
-3.95
-0.999146
-2.2386e-15
-31.0071
-22.1333
-14.2821
-7.80115
-2.97245
-2.60208e-13
-28.6419
-19.4919
-11.457
-4.87135
1.00202e-13
-24.2138
-14.8261
-6.64832
-3.61557e-14
-17.8241
-8.25887
-1.63656e-13
-9.66271
2.02295e-13
-4.35785e-14
-4.93003e-15
-0.999146
-3.95
-8.7148
-15.0707
-22.7195
-31.3012
-2.99877e-13
-2.97245
-7.80115
-14.2821
-22.1333
-31.0071
6.48349e-14
-4.87135
-11.457
-19.4919
-28.6419
-4.76886e-15
-6.64832
-14.8261
-24.2138
-8.93767e-16
-8.25887
-17.8241
1.75255e-14
-9.66271
-1.36704e-14
-31.3012
-29.6086
-26.1031
-21.0394
-14.7416
-7.58932
-3.41508e-14
-40.4092
-38.3359
-34.48
-29.1143
-22.578
-15.2617
-49.6092
-47.0576
-42.7582
-37.0016
-30.1413
-58.4573
-55.3318
-50.499
-44.2665
-66.5205
-62.7324
-57.2837
-73.3956
-68.8671
-78.7268
-1.36704e-14
-20.3759
-39.3634
-55.6682
-68.1793
-76.0442
-78.7268
-9.26244
-27.1561
-43.1991
-56.2981
-65.5606
-70.3551
-16.4406
-31.7608
-44.9166
-55.0114
-61.3573
-21.5723
-34.3165
-44.7221
-52.0801
-24.7388
-34.986
-42.8489
-26.0612
-33.9636
-25.6949
-25.6949
-18.2822
-11.9313
-6.81263
-3.06007
-0.769863
-4.41658e-16
-26.0612
-18.169
-11.4927
-6.17608
-2.32366
-2.24892e-13
-24.7388
-16.3827
-9.40497
-3.91993
8.35584e-14
-21.5723
-12.8058
-5.58785
-2.03902e-14
-16.4406
-7.3579
-1.50196e-13
-9.26244
1.58918e-13
-1.36704e-14
</DataArray>
<DataArray type="Float64" Name="Ez_re" NumberOfComponents="1" format="ascii" >
-4.74416e-12
-4.86506e-12
-3.89808e-12
-2.93423e-12
-1.72053e-12
-5.32143e-13
1.90748e-14
-4.68677e-12
-4.26491e-12
-3.35568e-12
-2.08755e-12
-8.28382e-13
-1.86198e-13
-4.11856e-12
-3.44078e-12
-2.41432e-12
-1.14622e-12
-3.47414e-13
-3.38915e-12
-2.48929e-12
-1.26793e-12
-5.63776e-13
-2.5415e-12
-1.56745e-12
-8.29014e-13
-1.76434e-12
-1.09164e-12
-1.31927e-12
-1.6409e-16
-7.74885e-15
1.45286e-14
4.46792e-14
1.85086e-14
-1.17291e-14
1.89353e-14
-4.67077e-13
-3.42774e-13
-2.17555e-13
-2.06352e-13
-1.9201e-13
1.40784e-15
-9.0452e-13
-7.02579e-13
-5.39405e-13
-3.83389e-13
-2.39654e-13
-1.17792e-12
-9.36345e-13
-6.57104e-13
-4.46796e-13
-1.43585e-12
-1.06694e-12
-8.25805e-13
-1.65939e-12
-1.19002e-12
-1.29165e-12
9.51729e-15
-1.016e-12
-1.72642e-12
-2.51831e-12
-3.29874e-12
-4.2733e-12
-4.74416e-12
-5.50249e-13
-1.20992e-12
-1.87098e-12
-2.72069e-12
-3.73063e-12
-4.58376e-12
-9.29058e-13
-1.4994e-12
-2.17387e-12
-2.97019e-12
-3.92056e-12
-1.16492e-12
-1.64347e-12
-2.29458e-12
-3.18444e-12
-1.3062e-12
-1.8416e-12
-2.60847e-12
-1.45042e-12
-2.17551e-12
-1.29165e-12
4.68739e-14
4.73347e-14
3.52423e-14
2.93646e-14
3.43945e-14
4.88469e-14
-1.6409e-16
-6.80687e-14
-9.14326e-14
-2.00405e-13
-2.30306e-13
-2.53731e-13
-4.83483e-13
-1.45958e-13
-2.76518e-13
-4.2405e-13
-5.31758e-13
-7.18033e-13
-3.36316e-13
-5.14834e-13
-7.43626e-13
-9.927e-13
-5.21843e-13
-7.89368e-13
-1.14528e-12
-7.94577e-13
-1.13953e-12
-1.31927e-12
-1.29165e-12
-2.17551e-12
-2.60847e-12
-3.18444e-12
-3.92056e-12
-4.58376e-12
-4.74416e-12
-1.65939e-12
-2.11262e-12
-2.59956e-12
-3.18975e-12
-3.85085e-12
-4.3839e-12
-1.43585e-12
-1.99345e-12
-2.47281e-12
-2.94075e-12
-3.64535e-12
-1.17792e-12
-1.65468e-12
-2.0524e-12
-2.62554e-12
-9.0452e-13
-1.28273e-12
-1.67256e-12
-4.67077e-13
-9.20784e-13
-1.6409e-16
-1.29165e-12
-1.19002e-12
-8.25805e-13
-4.46796e-13
-2.39654e-13
1.40784e-15
1.89353e-14
-1.45042e-12
-1.11559e-12
-6.90435e-13
-3.98335e-13
-1.35885e-13
1.59263e-14
-1.3062e-12
-9.68571e-13
-5.76773e-13
-2.44735e-13
4.40699e-15
-1.16492e-12
-7.87235e-13
-3.55002e-13
2.66867e-15
-9.29058e-13
-4.49127e-13
1.48597e-14
-5.50249e-13
2.97598e-14
9.51729e-15
4.68739e-14
-6.80687e-14
-1.45958e-13
-3.36316e-13
-5.21843e-13
-7.94577e-13
-1.31927e-12
-1.98373e-15
-2.69288e-14
-2.07924e-13
-4.08663e-13
-6.72356e-13
-1.09164e-12
3.85953e-15
-1.11033e-13
-3.08696e-13
-4.95361e-13
-8.29014e-13
1.14928e-14
-2.17952e-13
-3.65998e-13
-5.63776e-13
3.42389e-14
-1.92688e-13
-3.47414e-13
4.10072e-14
-1.86198e-13
1.90748e-14
-1.31927e-12
-1.13953e-12
-1.14528e-12
-9.927e-13
-7.18033e-13
-4.83483e-13
-1.6409e-16
-1.76434e-12
-1.75768e-12
-1.7448e-12
-1.45075e-12
-1.1228e-12
-9.20784e-13
-2.5415e-12
-2.62683e-12
-2.44357e-12
-1.97503e-12
-1.67256e-12
-3.38915e-12
-3.75622e-12
-3.31565e-12
-2.62554e-12
-4.11856e-12
-4.06224e-12
-3.64535e-12
-4.68677e-12
-4.3839e-12
-4.74416e-12
1.90748e-14
-5.32143e-13
-1.72053e-12
-2.93423e-12
-3.89808e-12
-4.86506e-12
-4.74416e-12
-2.30115e-13
-1.01809e-12
-2.08048e-12
-3.08738e-12
-3.95569e-12
-4.6353e-12
-5.61288e-13
-1.39253e-12
-2.35259e-12
-3.15639e-12
-3.86319e-12
-8.75721e-13
-1.7095e-12
-2.59319e-12
-3.10645e-12
-1.04116e-12
-1.95614e-12
-2.48622e-12
-1.13722e-12
-2.10377e-12
-2.01627e-12
-2.01627e-12
-6.26642e-13
-4.92398e-13
-2.95698e-13
-6.09663e-14
-3.84648e-14
1.2581e-14
-1.13722e-12
-6.01841e-13
-2.87692e-13
-2.24923e-13
-2.60972e-13
3.20052e-14
-1.04116e-12
-4.71999e-13
-2.36396e-13
-9.97511e-14
2.85448e-14
-8.75721e-13
-5.13507e-13
-2.65653e-13
1.66393e-14
-5.61288e-13
-2.5322e-13
2.12692e-14
-2.30115e-13
1.83873e-14
1.90748e-14
</DataArray>
<DataArray type="Float64" Name="Ht_im" NumberOfComponents="2" format="ascii" >
-2.56014e-14 1.68531e-14 
-1.19621e-14 2.55906e-15 
-8.0552e-15 9.03724e-15 
-1.04455e-14 8.6444e-15 
-1.24858e-14 4.0813e-15 
-9.72569e-15 2.7733e-15 
-5.32163e-15 -1.11275e-14 
-2.50674e-14 3.68566e-15 
-3.07511e-14 4.48709e-15 
-2.32894e-14 9.9697e-15 
-1.68189e-14 6.25517e-15 
-1.21406e-14 2.68204e-15 
-2.03975e-15 -3.53978e-16 
-3.16526e-14 2.68856e-15 
-2.71571e-14 7.69099e-15 
-1.71519e-14 8.17396e-15 
-1.42588e-14 5.31166e-15 
-7.069e-15 -9.03907e-16 
-3.63844e-14 3.73064e-15 
-2.44855e-14 8.30211e-15 
-1.90198e-14 7.0618e-15 
-9.30649e-15 1.22181e-15 
-3.44501e-14 4.08331e-15 
-2.62913e-14 7.17071e-15 
-1.15191e-14 2.45709e-15 
-2.64985e-14 5.58925e-15 
-1.61307e-14 9.25454e-16 
-1.63445e-14 3.83809e-15 
-2.94927e-14 -1.94549e-15 
-4.07984e-14 4.92538e-16 
-3.95554e-14 -4.5181e-16 
-3.16631e-14 -6.84283e-16 
-1.98361e-14 2.11954e-16 
-7.09093e-15 2.98572e-16 
-2.33506e-16 1.71894e-15 
-4.23948e-14 5.75612e-16 
-3.862e-14 -6.24073e-16 
-3.24913e-14 -9.3776e-16 
-2.39978e-14 -5.36522e-16 
-1.32272e-14 -8.90371e-16 
-4.04435e-15 2.7142e-16 
-4.15064e-14 -1.17769e-15 
-3.59086e-14 -1.38936e-15 
-2.84136e-14 -1.98907e-15 
-1.84907e-14 -2.00139e-15 
-9.28747e-15 -8.94014e-16 
-3.68469e-14 -1.71815e-15 
-3.17682e-14 -2.72237e-15 
-2.27985e-14 -2.84754e-15 
-1.39098e-14 -2.61472e-15 
-3.29036e-14 -5.88656e-16 
-2.67708e-14 -3.64654e-15 
-1.74191e-14 -2.93718e-15 
-2.93245e-14 -1.27593e-15 
-2.12985e-14 -5.26183e-15 
-2.18341e-14 -9.62869e-15 
1.87072e-15 -8.9309e-15 
-1.65835e-15 -1.15684e-15 
-5.24924e-15 -5.03439e-15 
-1.06794e-14 -8.02092e-15 
-1.35398e-14 -1.03942e-14 
-1.27889e-14 -9.7963e-15 
-2.03068e-14 9.67468e-15 
-3.73071e-15 -2.05932e-15 
-6.70623e-15 -2.76919e-15 
-1.3536e-14 -5.30901e-15 
-2.24929e-14 -9.37418e-15 
-2.8988e-14 -1.13715e-14 
-3.49531e-14 -2.52533e-15 
-6.21011e-15 -1.53114e-15 
-1.11848e-14 -4.14044e-15 
-1.8223e-14 -6.00768e-15 
-2.65966e-14 -9.69227e-15 
-3.48529e-14 -7.44648e-15 
-8.49355e-15 -3.7168e-15 
-1.51914e-14 -4.06603e-15 
-2.16061e-14 -6.73088e-15 
-3.14223e-14 -8.94603e-15 
-1.39021e-14 -4.62987e-15 
-1.96596e-14 -4.34684e-15 
-2.76286e-14 -5.99432e-15 
-2.09839e-14 -4.80724e-15 
-2.49201e-14 -4.5414e-15 
-2.08322e-14 -8.66505e-15 
-3.91406e-15 1.20317e-15 
-1.05753e-14 -2.27407e-16 
-1.84981e-14 5.04395e-16 
-2.4045e-14 3.41326e-16 
-2.99274e-14 -2.96104e-16 
-3.7356e-14 -9.54412e-16 
-3.81925e-14 1.4404e-16 
-4.71287e-15 -3.304e-16 
-9.66538e-15 2.01803e-16 
-1.7422e-14 -4.77944e-17 
-2.44043e-14 4.20597e-16 
-3.27444e-14 1.16623e-15 
-4.26131e-14 -1.35011e-15 
-7.15692e-15 -1.81465e-16 
-1.31593e-14 5.1017e-16 
-2.13564e-14 8.43846e-16 
-2.85839e-14 1.23867e-15 
-3.69197e-14 1.94048e-15 
-9.54408e-15 -4.16087e-16 
-1.62171e-14 1.34929e-15 
-2.38602e-14 1.20917e-15 
-3.12268e-14 5.15958e-15 
-1.35045e-14 -1.47334e-15 
-1.94292e-14 2.27627e-15 
-2.89437e-14 2.64378e-15 
-1.89356e-14 -3.30871e-16 
-2.42501e-14 1.92971e-15 
-1.52015e-14 3.02937e-15 
-2.15499e-14 -1.02602e-14 
-2.46428e-14 -3.92509e-15 
-2.84306e-14 -7.77652e-15 
-3.14748e-14 -9.06284e-15 
-3.47386e-14 -7.19256e-15 
-3.55016e-14 -3.74425e-15 
-2.04694e-14 9.31317e-15 
-2.92998e-14 -1.33075e-15 
-3.21356e-14 -4.61975e-15 
-3.45412e-14 -5.67061e-15 
-3.67224e-14 -4.56475e-15 
-3.79697e-14 -1.66329e-15 
-3.46397e-14 3.94306e-15 
-3.2989e-14 -3.98788e-16 
-3.70752e-14 -3.86963e-15 
-3.87148e-14 -2.05286e-15 
-3.98085e-14 -1.12534e-15 
-3.63976e-14 9.62178e-16 
-3.71928e-14 -9.49337e-16 
-3.97386e-14 -1.00986e-15 
-3.97462e-14 4.12774e-16 
-3.98554e-14 2.01773e-16 
-4.13569e-14 -1.50989e-15 
-4.01819e-14 1.21654e-15 
-4.28192e-14 -2.83611e-16 
-4.25499e-14 9.20389e-16 
-4.15809e-14 -1.4539e-15 
-3.01336e-14 -5.21241e-16 
-2.11163e-14 -8.03358e-15 
-2.03469e-14 -3.14725e-15 